<?xml version="1.0" encoding="UTF-8"?>

<!-- generated on 05/25/21 11:33:52 by Eclipse SUMO GUI Version 1.8.0
<configuration xmlns:xsi="http://www.w3.org/2001/XMLSchema-instance" xsi:noNamespaceSchemaLocation="http://sumo.dlr.de/xsd/sumoConfiguration.xsd">

    <input>
        <net-file value="C:\Users\sansung\PycharmProjects\Metro_Plan\Data\Metro_Intersection.net.xml"/>
        <route-files value="C:\Users\sansung\PycharmProjects\Metro_Plan\Data\Metro_Intersection.rou.xml"/>
        <additional-files value="C:\Users\sansung\PycharmProjects\Metro_Plan\Data\Metro_Intersection.add.xml"/>
    </input>

    <time>
        <begin value="0"/>
    </time>

    <processing>
        <lateral-resolution value="0.1"/>
        <ignore-junction-blocker value="100000"/>
    </processing>

    <report>
        <verbose value="true"/>
        <no-step-log value="true"/>
    </report>

</configuration>
-->

<detector xmlns:xsi="http://www.w3.org/2001/XMLSchema-instance" xsi:noNamespaceSchemaLocation="http://sumo.dlr.de/xsd/det_e1_file.xsd">
    <interval begin="0.00" end="30.00" id="D_1" nVehContrib="0" flow="0.00" occupancy="0.00" speed="-1.00" harmonicMeanSpeed="-1.00" length="-1.00" nVehEntered="0"/>
    <interval begin="30.00" end="60.00" id="D_1" nVehContrib="2" flow="240.00" occupancy="6.30" speed="5.66" harmonicMeanSpeed="5.29" length="5.00" nVehEntered="2"/>
    <interval begin="60.00" end="90.00" id="D_1" nVehContrib="0" flow="0.00" occupancy="0.00" speed="-1.00" harmonicMeanSpeed="-1.00" length="-1.00" nVehEntered="0"/>
    <interval begin="90.00" end="120.00" id="D_1" nVehContrib="0" flow="0.00" occupancy="0.00" speed="-1.00" harmonicMeanSpeed="-1.00" length="-1.00" nVehEntered="0"/>
    <interval begin="120.00" end="150.00" id="D_1" nVehContrib="3" flow="360.00" occupancy="9.02" speed="5.82" harmonicMeanSpeed="5.54" length="5.00" nVehEntered="3"/>
    <interval begin="150.00" end="180.00" id="D_1" nVehContrib="0" flow="0.00" occupancy="0.00" speed="-1.00" harmonicMeanSpeed="-1.00" length="-1.00" nVehEntered="0"/>
    <interval begin="180.00" end="210.00" id="D_1" nVehContrib="0" flow="0.00" occupancy="0.00" speed="-1.00" harmonicMeanSpeed="-1.00" length="-1.00" nVehEntered="0"/>
    <interval begin="210.00" end="240.00" id="D_1" nVehContrib="1" flow="120.00" occupancy="3.99" speed="4.18" harmonicMeanSpeed="4.18" length="5.00" nVehEntered="1"/>
    <interval begin="240.00" end="270.00" id="D_1" nVehContrib="1" flow="120.00" occupancy="2.40" speed="6.95" harmonicMeanSpeed="6.95" length="5.00" nVehEntered="1"/>
    <interval begin="270.00" end="300.00" id="D_1" nVehContrib="0" flow="0.00" occupancy="0.00" speed="-1.00" harmonicMeanSpeed="-1.00" length="-1.00" nVehEntered="0"/>
    <interval begin="300.00" end="330.00" id="D_1" nVehContrib="0" flow="0.00" occupancy="0.00" speed="-1.00" harmonicMeanSpeed="-1.00" length="-1.00" nVehEntered="0"/>
    <interval begin="330.00" end="360.00" id="D_1" nVehContrib="2" flow="240.00" occupancy="4.28" speed="7.81" harmonicMeanSpeed="7.80" length="5.00" nVehEntered="2"/>
    <interval begin="360.00" end="390.00" id="D_1" nVehContrib="0" flow="0.00" occupancy="0.00" speed="-1.00" harmonicMeanSpeed="-1.00" length="-1.00" nVehEntered="0"/>
    <interval begin="390.00" end="420.00" id="D_1" nVehContrib="3" flow="360.00" occupancy="8.63" speed="6.16" harmonicMeanSpeed="5.79" length="5.00" nVehEntered="3"/>
    <interval begin="420.00" end="450.00" id="D_1" nVehContrib="2" flow="240.00" occupancy="4.39" speed="7.60" harmonicMeanSpeed="7.60" length="5.00" nVehEntered="2"/>
    <interval begin="450.00" end="480.00" id="D_1" nVehContrib="0" flow="0.00" occupancy="0.00" speed="-1.00" harmonicMeanSpeed="-1.00" length="-1.00" nVehEntered="0"/>
    <interval begin="480.00" end="510.00" id="D_1" nVehContrib="0" flow="0.00" occupancy="0.00" speed="-1.00" harmonicMeanSpeed="-1.00" length="-1.00" nVehEntered="0"/>
    <interval begin="510.00" end="540.00" id="D_1" nVehContrib="1" flow="120.00" occupancy="1.87" speed="8.92" harmonicMeanSpeed="8.92" length="5.00" nVehEntered="1"/>
    <interval begin="540.00" end="570.00" id="D_1" nVehContrib="0" flow="0.00" occupancy="0.00" speed="-1.00" harmonicMeanSpeed="-1.00" length="-1.00" nVehEntered="0"/>
    <interval begin="570.00" end="600.00" id="D_1" nVehContrib="2" flow="240.00" occupancy="6.23" speed="5.82" harmonicMeanSpeed="5.35" length="5.00" nVehEntered="2"/>
    <interval begin="600.00" end="630.00" id="D_1" nVehContrib="1" flow="120.00" occupancy="2.35" speed="7.09" harmonicMeanSpeed="7.09" length="5.00" nVehEntered="1"/>
    <interval begin="630.00" end="660.00" id="D_1" nVehContrib="0" flow="0.00" occupancy="0.00" speed="-1.00" harmonicMeanSpeed="-1.00" length="-1.00" nVehEntered="0"/>
    <interval begin="660.00" end="690.00" id="D_1" nVehContrib="5" flow="600.00" occupancy="13.43" speed="6.50" harmonicMeanSpeed="6.20" length="5.00" nVehEntered="5"/>
    <interval begin="690.00" end="720.00" id="D_1" nVehContrib="0" flow="0.00" occupancy="0.00" speed="-1.00" harmonicMeanSpeed="-1.00" length="-1.00" nVehEntered="0"/>
    <interval begin="720.00" end="750.00" id="D_1" nVehContrib="0" flow="0.00" occupancy="0.00" speed="-1.00" harmonicMeanSpeed="-1.00" length="-1.00" nVehEntered="0"/>
    <interval begin="750.00" end="780.00" id="D_1" nVehContrib="3" flow="360.00" occupancy="8.72" speed="6.07" harmonicMeanSpeed="5.73" length="5.00" nVehEntered="3"/>
    <interval begin="780.00" end="810.00" id="D_1" nVehContrib="1" flow="120.00" occupancy="2.07" speed="8.06" harmonicMeanSpeed="8.06" length="5.00" nVehEntered="1"/>
    <interval begin="810.00" end="840.00" id="D_1" nVehContrib="0" flow="0.00" occupancy="0.00" speed="-1.00" harmonicMeanSpeed="-1.00" length="-1.00" nVehEntered="0"/>
    <interval begin="840.00" end="870.00" id="D_1" nVehContrib="2" flow="240.00" occupancy="6.40" speed="5.51" harmonicMeanSpeed="5.21" length="5.00" nVehEntered="2"/>
    <interval begin="870.00" end="900.00" id="D_1" nVehContrib="1" flow="120.00" occupancy="2.40" speed="6.94" harmonicMeanSpeed="6.94" length="5.00" nVehEntered="1"/>
    <interval begin="900.00" end="930.00" id="D_1" nVehContrib="0" flow="0.00" occupancy="0.00" speed="-1.00" harmonicMeanSpeed="-1.00" length="-1.00" nVehEntered="0"/>
    <interval begin="930.00" end="960.00" id="D_1" nVehContrib="4" flow="480.00" occupancy="11.12" speed="6.28" harmonicMeanSpeed="5.99" length="5.00" nVehEntered="4"/>
    <interval begin="960.00" end="990.00" id="D_1" nVehContrib="1" flow="120.00" occupancy="2.25" speed="7.40" harmonicMeanSpeed="7.40" length="5.00" nVehEntered="1"/>
    <interval begin="990.00" end="1020.00" id="D_1" nVehContrib="0" flow="0.00" occupancy="0.00" speed="-1.00" harmonicMeanSpeed="-1.00" length="-1.00" nVehEntered="0"/>
    <interval begin="1020.00" end="1050.00" id="D_1" nVehContrib="1" flow="120.00" occupancy="2.16" speed="7.72" harmonicMeanSpeed="7.72" length="5.00" nVehEntered="1"/>
    <interval begin="1050.00" end="1080.00" id="D_1" nVehContrib="0" flow="0.00" occupancy="0.00" speed="-1.00" harmonicMeanSpeed="-1.00" length="-1.00" nVehEntered="0"/>
    <interval begin="1080.00" end="1110.00" id="D_1" nVehContrib="0" flow="0.00" occupancy="0.00" speed="-1.00" harmonicMeanSpeed="-1.00" length="-1.00" nVehEntered="0"/>
    <interval begin="1110.00" end="1140.00" id="D_1" nVehContrib="2" flow="240.00" occupancy="6.38" speed="5.52" harmonicMeanSpeed="5.22" length="5.00" nVehEntered="2"/>
    <interval begin="1140.00" end="1170.00" id="D_1" nVehContrib="3" flow="360.00" occupancy="7.16" speed="7.15" harmonicMeanSpeed="6.98" length="5.00" nVehEntered="3"/>
    <interval begin="1170.00" end="1200.00" id="D_1" nVehContrib="0" flow="0.00" occupancy="0.00" speed="-1.00" harmonicMeanSpeed="-1.00" length="-1.00" nVehEntered="0"/>
    <interval begin="1200.00" end="1230.00" id="D_1" nVehContrib="5" flow="600.00" occupancy="13.76" speed="6.39" harmonicMeanSpeed="6.06" length="5.00" nVehEntered="5"/>
    <interval begin="1230.00" end="1260.00" id="D_1" nVehContrib="3" flow="360.00" occupancy="6.38" speed="7.88" harmonicMeanSpeed="7.84" length="5.00" nVehEntered="3"/>
    <interval begin="1260.00" end="1290.00" id="D_1" nVehContrib="0" flow="0.00" occupancy="0.00" speed="-1.00" harmonicMeanSpeed="-1.00" length="-1.00" nVehEntered="0"/>
    <interval begin="1290.00" end="1320.00" id="D_1" nVehContrib="4" flow="480.00" occupancy="11.49" speed="6.09" harmonicMeanSpeed="5.80" length="5.00" nVehEntered="4"/>
    <interval begin="1320.00" end="1350.00" id="D_1" nVehContrib="2" flow="240.00" occupancy="4.24" speed="7.87" harmonicMeanSpeed="7.87" length="5.00" nVehEntered="2"/>
    <interval begin="1350.00" end="1380.00" id="D_1" nVehContrib="0" flow="0.00" occupancy="0.00" speed="-1.00" harmonicMeanSpeed="-1.00" length="-1.00" nVehEntered="0"/>
    <interval begin="1380.00" end="1410.00" id="D_1" nVehContrib="4" flow="480.00" occupancy="11.03" speed="6.36" harmonicMeanSpeed="6.04" length="5.00" nVehEntered="4"/>
    <interval begin="1410.00" end="1440.00" id="D_1" nVehContrib="0" flow="0.00" occupancy="0.00" speed="-1.00" harmonicMeanSpeed="-1.00" length="-1.00" nVehEntered="0"/>
    <interval begin="1440.00" end="1470.00" id="D_1" nVehContrib="0" flow="0.00" occupancy="0.00" speed="-1.00" harmonicMeanSpeed="-1.00" length="-1.00" nVehEntered="0"/>
    <interval begin="1470.00" end="1500.00" id="D_1" nVehContrib="1" flow="120.00" occupancy="2.18" speed="7.65" harmonicMeanSpeed="7.65" length="5.00" nVehEntered="1"/>
    <interval begin="1500.00" end="1530.00" id="D_1" nVehContrib="1" flow="120.00" occupancy="1.92" speed="8.69" harmonicMeanSpeed="8.69" length="5.00" nVehEntered="1"/>
    <interval begin="1530.00" end="1560.00" id="D_1" nVehContrib="0" flow="0.00" occupancy="0.00" speed="-1.00" harmonicMeanSpeed="-1.00" length="-1.00" nVehEntered="0"/>
    <interval begin="1560.00" end="1590.00" id="D_1" nVehContrib="3" flow="360.00" occupancy="8.88" speed="5.91" harmonicMeanSpeed="5.63" length="5.00" nVehEntered="3"/>
    <interval begin="1590.00" end="1620.00" id="D_1" nVehContrib="1" flow="120.00" occupancy="2.35" speed="7.08" harmonicMeanSpeed="7.08" length="5.00" nVehEntered="1"/>
    <interval begin="1620.00" end="1650.00" id="D_1" nVehContrib="0" flow="0.00" occupancy="0.00" speed="-1.00" harmonicMeanSpeed="-1.00" length="-1.00" nVehEntered="0"/>
    <interval begin="1650.00" end="1680.00" id="D_1" nVehContrib="4" flow="480.00" occupancy="11.12" speed="6.29" harmonicMeanSpeed="5.99" length="5.00" nVehEntered="4"/>
    <interval begin="1680.00" end="1710.00" id="D_1" nVehContrib="1" flow="120.00" occupancy="2.65" speed="6.29" harmonicMeanSpeed="6.29" length="5.00" nVehEntered="1"/>
    <interval begin="1710.00" end="1740.00" id="D_1" nVehContrib="0" flow="0.00" occupancy="0.00" speed="-1.00" harmonicMeanSpeed="-1.00" length="-1.00" nVehEntered="0"/>
    <interval begin="1740.00" end="1770.00" id="D_1" nVehContrib="3" flow="360.00" occupancy="8.89" speed="5.91" harmonicMeanSpeed="5.62" length="5.00" nVehEntered="3"/>
    <interval begin="1770.00" end="1800.00" id="D_1" nVehContrib="2" flow="240.00" occupancy="4.18" speed="7.98" harmonicMeanSpeed="7.97" length="5.00" nVehEntered="2"/>
    <interval begin="1800.00" end="1830.00" id="D_1" nVehContrib="0" flow="0.00" occupancy="0.00" speed="-1.00" harmonicMeanSpeed="-1.00" length="-1.00" nVehEntered="0"/>
    <interval begin="1830.00" end="1860.00" id="D_1" nVehContrib="4" flow="480.00" occupancy="11.30" speed="6.16" harmonicMeanSpeed="5.90" length="5.00" nVehEntered="4"/>
    <interval begin="1860.00" end="1890.00" id="D_1" nVehContrib="1" flow="120.00" occupancy="1.92" speed="8.69" harmonicMeanSpeed="8.69" length="5.00" nVehEntered="1"/>
    <interval begin="1890.00" end="1920.00" id="D_1" nVehContrib="0" flow="0.00" occupancy="0.00" speed="-1.00" harmonicMeanSpeed="-1.00" length="-1.00" nVehEntered="0"/>
    <interval begin="1920.00" end="1950.00" id="D_1" nVehContrib="5" flow="600.00" occupancy="13.42" speed="6.71" harmonicMeanSpeed="6.37" length="5.00" nVehEntered="6"/>
    <interval begin="1950.00" end="1980.00" id="D_1" nVehContrib="1" flow="120.00" occupancy="1.99" speed="7.14" harmonicMeanSpeed="7.14" length="5.00" nVehEntered="0"/>
    <interval begin="1980.00" end="2010.00" id="D_1" nVehContrib="0" flow="0.00" occupancy="0.00" speed="-1.00" harmonicMeanSpeed="-1.00" length="-1.00" nVehEntered="0"/>
    <interval begin="2010.00" end="2040.00" id="D_1" nVehContrib="5" flow="600.00" occupancy="14.08" speed="6.14" harmonicMeanSpeed="5.92" length="5.00" nVehEntered="5"/>
    <interval begin="2040.00" end="2070.00" id="D_1" nVehContrib="0" flow="0.00" occupancy="0.00" speed="-1.00" harmonicMeanSpeed="-1.00" length="-1.00" nVehEntered="0"/>
    <interval begin="2070.00" end="2100.00" id="D_1" nVehContrib="0" flow="0.00" occupancy="0.00" speed="-1.00" harmonicMeanSpeed="-1.00" length="-1.00" nVehEntered="0"/>
    <interval begin="2100.00" end="2130.00" id="D_1" nVehContrib="3" flow="360.00" occupancy="8.88" speed="5.91" harmonicMeanSpeed="5.63" length="5.00" nVehEntered="3"/>
    <interval begin="2130.00" end="2160.00" id="D_1" nVehContrib="1" flow="120.00" occupancy="2.39" speed="6.97" harmonicMeanSpeed="6.97" length="5.00" nVehEntered="1"/>
    <interval begin="2160.00" end="2190.00" id="D_1" nVehContrib="0" flow="0.00" occupancy="0.00" speed="-1.00" harmonicMeanSpeed="-1.00" length="-1.00" nVehEntered="0"/>
    <interval begin="2190.00" end="2220.00" id="D_1" nVehContrib="2" flow="240.00" occupancy="6.13" speed="5.95" harmonicMeanSpeed="5.43" length="5.00" nVehEntered="2"/>
    <interval begin="2220.00" end="2250.00" id="D_1" nVehContrib="0" flow="0.00" occupancy="0.00" speed="-1.00" harmonicMeanSpeed="-1.00" length="-1.00" nVehEntered="0"/>
    <interval begin="2250.00" end="2280.00" id="D_1" nVehContrib="0" flow="0.00" occupancy="0.00" speed="-1.00" harmonicMeanSpeed="-1.00" length="-1.00" nVehEntered="0"/>
    <interval begin="2280.00" end="2310.00" id="D_1" nVehContrib="6" flow="720.00" occupancy="16.29" speed="6.37" harmonicMeanSpeed="6.14" length="5.00" nVehEntered="6"/>
    <interval begin="2310.00" end="2340.00" id="D_1" nVehContrib="2" flow="240.00" occupancy="4.71" speed="7.15" harmonicMeanSpeed="7.08" length="5.00" nVehEntered="2"/>
    <interval begin="2340.00" end="2370.00" id="D_1" nVehContrib="0" flow="0.00" occupancy="0.00" speed="-1.00" harmonicMeanSpeed="-1.00" length="-1.00" nVehEntered="0"/>
    <interval begin="2370.00" end="2400.00" id="D_1" nVehContrib="1" flow="120.00" occupancy="3.92" speed="4.25" harmonicMeanSpeed="4.25" length="5.00" nVehEntered="1"/>
    <interval begin="2400.00" end="2430.00" id="D_1" nVehContrib="1" flow="120.00" occupancy="1.88" speed="8.86" harmonicMeanSpeed="8.86" length="5.00" nVehEntered="1"/>
    <interval begin="2430.00" end="2460.00" id="D_1" nVehContrib="0" flow="0.00" occupancy="0.00" speed="-1.00" harmonicMeanSpeed="-1.00" length="-1.00" nVehEntered="0"/>
    <interval begin="2460.00" end="2490.00" id="D_1" nVehContrib="3" flow="360.00" occupancy="8.68" speed="6.19" harmonicMeanSpeed="5.76" length="5.00" nVehEntered="3"/>
    <interval begin="2490.00" end="2520.00" id="D_1" nVehContrib="0" flow="0.00" occupancy="0.00" speed="-1.00" harmonicMeanSpeed="-1.00" length="-1.00" nVehEntered="0"/>
    <interval begin="2520.00" end="2550.00" id="D_1" nVehContrib="0" flow="0.00" occupancy="0.00" speed="-1.00" harmonicMeanSpeed="-1.00" length="-1.00" nVehEntered="0"/>
    <interval begin="2550.00" end="2580.00" id="D_1" nVehContrib="0" flow="0.00" occupancy="0.00" speed="-1.00" harmonicMeanSpeed="-1.00" length="-1.00" nVehEntered="0"/>
    <interval begin="2580.00" end="2610.00" id="D_1" nVehContrib="0" flow="0.00" occupancy="0.00" speed="-1.00" harmonicMeanSpeed="-1.00" length="-1.00" nVehEntered="0"/>
    <interval begin="2610.00" end="2640.00" id="D_1" nVehContrib="0" flow="0.00" occupancy="0.00" speed="-1.00" harmonicMeanSpeed="-1.00" length="-1.00" nVehEntered="0"/>
    <interval begin="2640.00" end="2670.00" id="D_1" nVehContrib="6" flow="720.00" occupancy="16.62" speed="6.22" harmonicMeanSpeed="6.03" length="5.00" nVehEntered="7"/>
    <interval begin="2670.00" end="2700.00" id="D_1" nVehContrib="1" flow="120.00" occupancy="2.66" speed="6.18" harmonicMeanSpeed="6.18" length="5.00" nVehEntered="0"/>
    <interval begin="2700.00" end="2730.00" id="D_1" nVehContrib="0" flow="0.00" occupancy="0.00" speed="-1.00" harmonicMeanSpeed="-1.00" length="-1.00" nVehEntered="0"/>
    <interval begin="2730.00" end="2760.00" id="D_1" nVehContrib="4" flow="480.00" occupancy="10.41" speed="6.56" harmonicMeanSpeed="6.41" length="5.00" nVehEntered="4"/>
    <interval begin="2760.00" end="2790.00" id="D_1" nVehContrib="0" flow="0.00" occupancy="0.00" speed="-1.00" harmonicMeanSpeed="-1.00" length="-1.00" nVehEntered="0"/>
    <interval begin="2790.00" end="2820.00" id="D_1" nVehContrib="0" flow="0.00" occupancy="0.00" speed="-1.00" harmonicMeanSpeed="-1.00" length="-1.00" nVehEntered="0"/>
    <interval begin="2820.00" end="2850.00" id="D_1" nVehContrib="1" flow="120.00" occupancy="3.99" speed="4.18" harmonicMeanSpeed="4.18" length="5.00" nVehEntered="1"/>
    <interval begin="2850.00" end="2880.00" id="D_1" nVehContrib="0" flow="0.00" occupancy="0.00" speed="-1.00" harmonicMeanSpeed="-1.00" length="-1.00" nVehEntered="0"/>
    <interval begin="2880.00" end="2910.00" id="D_1" nVehContrib="0" flow="0.00" occupancy="0.00" speed="-1.00" harmonicMeanSpeed="-1.00" length="-1.00" nVehEntered="0"/>
    <interval begin="2910.00" end="2940.00" id="D_1" nVehContrib="4" flow="480.00" occupancy="11.01" speed="6.36" harmonicMeanSpeed="6.05" length="5.00" nVehEntered="4"/>
    <interval begin="2940.00" end="2970.00" id="D_1" nVehContrib="0" flow="0.00" occupancy="0.00" speed="-1.00" harmonicMeanSpeed="-1.00" length="-1.00" nVehEntered="0"/>
    <interval begin="2970.00" end="3000.00" id="D_1" nVehContrib="0" flow="0.00" occupancy="0.00" speed="-1.00" harmonicMeanSpeed="-1.00" length="-1.00" nVehEntered="0"/>
    <interval begin="3000.00" end="3030.00" id="D_1" nVehContrib="1" flow="120.00" occupancy="4.07" speed="4.09" harmonicMeanSpeed="4.09" length="5.00" nVehEntered="1"/>
    <interval begin="3030.00" end="3060.00" id="D_1" nVehContrib="0" flow="0.00" occupancy="0.00" speed="-1.00" harmonicMeanSpeed="-1.00" length="-1.00" nVehEntered="0"/>
    <interval begin="3060.00" end="3090.00" id="D_1" nVehContrib="0" flow="0.00" occupancy="0.00" speed="-1.00" harmonicMeanSpeed="-1.00" length="-1.00" nVehEntered="0"/>
    <interval begin="3090.00" end="3120.00" id="D_1" nVehContrib="2" flow="240.00" occupancy="6.77" speed="5.07" harmonicMeanSpeed="4.92" length="5.00" nVehEntered="2"/>
    <interval begin="3120.00" end="3150.00" id="D_1" nVehContrib="0" flow="0.00" occupancy="0.00" speed="-1.00" harmonicMeanSpeed="-1.00" length="-1.00" nVehEntered="0"/>
    <interval begin="3150.00" end="3180.00" id="D_1" nVehContrib="0" flow="0.00" occupancy="0.00" speed="-1.00" harmonicMeanSpeed="-1.00" length="-1.00" nVehEntered="0"/>
    <interval begin="3180.00" end="3210.00" id="D_1" nVehContrib="5" flow="600.00" occupancy="13.41" speed="6.50" harmonicMeanSpeed="6.22" length="5.00" nVehEntered="5"/>
    <interval begin="3210.00" end="3240.00" id="D_1" nVehContrib="1" flow="120.00" occupancy="1.74" speed="9.57" harmonicMeanSpeed="9.57" length="5.00" nVehEntered="1"/>
    <interval begin="3240.00" end="3270.00" id="D_1" nVehContrib="0" flow="0.00" occupancy="0.00" speed="-1.00" harmonicMeanSpeed="-1.00" length="-1.00" nVehEntered="0"/>
    <interval begin="3270.00" end="3300.00" id="D_1" nVehContrib="2" flow="240.00" occupancy="6.60" speed="5.28" harmonicMeanSpeed="5.05" length="5.00" nVehEntered="2"/>
    <interval begin="3300.00" end="3330.00" id="D_1" nVehContrib="3" flow="360.00" occupancy="7.48" speed="6.68" harmonicMeanSpeed="6.68" length="5.00" nVehEntered="3"/>
    <interval begin="3330.00" end="3360.00" id="D_1" nVehContrib="0" flow="0.00" occupancy="0.00" speed="-1.00" harmonicMeanSpeed="-1.00" length="-1.00" nVehEntered="0"/>
    <interval begin="3360.00" end="3390.00" id="D_1" nVehContrib="5" flow="600.00" occupancy="15.21" speed="5.62" harmonicMeanSpeed="5.48" length="5.00" nVehEntered="5"/>
    <interval begin="3390.00" end="3420.00" id="D_1" nVehContrib="3" flow="360.00" occupancy="6.92" speed="7.25" harmonicMeanSpeed="7.22" length="5.00" nVehEntered="3"/>
    <interval begin="3420.00" end="3450.00" id="D_1" nVehContrib="0" flow="0.00" occupancy="0.00" speed="-1.00" harmonicMeanSpeed="-1.00" length="-1.00" nVehEntered="0"/>
    <interval begin="3450.00" end="3480.00" id="D_1" nVehContrib="4" flow="480.00" occupancy="11.15" speed="6.31" harmonicMeanSpeed="5.98" length="5.00" nVehEntered="4"/>
    <interval begin="3480.00" end="3510.00" id="D_1" nVehContrib="0" flow="0.00" occupancy="0.00" speed="-1.00" harmonicMeanSpeed="-1.00" length="-1.00" nVehEntered="0"/>
    <interval begin="3510.00" end="3540.00" id="D_1" nVehContrib="0" flow="0.00" occupancy="0.00" speed="-1.00" harmonicMeanSpeed="-1.00" length="-1.00" nVehEntered="0"/>
    <interval begin="3540.00" end="3570.00" id="D_1" nVehContrib="2" flow="240.00" occupancy="6.25" speed="5.74" harmonicMeanSpeed="5.33" length="5.00" nVehEntered="2"/>
    <interval begin="3570.00" end="3600.00" id="D_1" nVehContrib="1" flow="120.00" occupancy="2.39" speed="6.98" harmonicMeanSpeed="6.98" length="5.00" nVehEntered="1"/>
    <interval begin="3600.00" end="3630.00" id="D_1" nVehContrib="0" flow="0.00" occupancy="0.00" speed="-1.00" harmonicMeanSpeed="-1.00" length="-1.00" nVehEntered="0"/>
    <interval begin="3630.00" end="3660.00" id="D_1" nVehContrib="2" flow="240.00" occupancy="6.45" speed="5.45" harmonicMeanSpeed="5.17" length="5.00" nVehEntered="2"/>
    <interval begin="3660.00" end="3690.00" id="D_1" nVehContrib="0" flow="0.00" occupancy="0.00" speed="-1.00" harmonicMeanSpeed="-1.00" length="-1.00" nVehEntered="0"/>
    <interval begin="3690.00" end="3720.00" id="D_1" nVehContrib="0" flow="0.00" occupancy="0.00" speed="-1.00" harmonicMeanSpeed="-1.00" length="-1.00" nVehEntered="0"/>
    <interval begin="3720.00" end="3750.00" id="D_1" nVehContrib="0" flow="0.00" occupancy="0.00" speed="-1.00" harmonicMeanSpeed="-1.00" length="-1.00" nVehEntered="0"/>
    <interval begin="3750.00" end="3780.00" id="D_1" nVehContrib="0" flow="0.00" occupancy="0.00" speed="-1.00" harmonicMeanSpeed="-1.00" length="-1.00" nVehEntered="0"/>
    <interval begin="3780.00" end="3810.00" id="D_1" nVehContrib="0" flow="0.00" occupancy="0.00" speed="-1.00" harmonicMeanSpeed="-1.00" length="-1.00" nVehEntered="0"/>
    <interval begin="3810.00" end="3840.00" id="D_1" nVehContrib="0" flow="0.00" occupancy="0.00" speed="-1.00" harmonicMeanSpeed="-1.00" length="-1.00" nVehEntered="0"/>
    <interval begin="3840.00" end="3870.00" id="D_1" nVehContrib="0" flow="0.00" occupancy="0.00" speed="-1.00" harmonicMeanSpeed="-1.00" length="-1.00" nVehEntered="0"/>
    <interval begin="3870.00" end="3900.00" id="D_1" nVehContrib="0" flow="0.00" occupancy="0.00" speed="-1.00" harmonicMeanSpeed="-1.00" length="-1.00" nVehEntered="0"/>
    <interval begin="3900.00" end="3930.00" id="D_1" nVehContrib="0" flow="0.00" occupancy="0.00" speed="-1.00" harmonicMeanSpeed="-1.00" length="-1.00" nVehEntered="0"/>
    <interval begin="3930.00" end="3960.00" id="D_1" nVehContrib="0" flow="0.00" occupancy="0.00" speed="-1.00" harmonicMeanSpeed="-1.00" length="-1.00" nVehEntered="0"/>
    <interval begin="3960.00" end="3990.00" id="D_1" nVehContrib="0" flow="0.00" occupancy="0.00" speed="-1.00" harmonicMeanSpeed="-1.00" length="-1.00" nVehEntered="0"/>
    <interval begin="3990.00" end="4020.00" id="D_1" nVehContrib="0" flow="0.00" occupancy="0.00" speed="-1.00" harmonicMeanSpeed="-1.00" length="-1.00" nVehEntered="0"/>
    <interval begin="4020.00" end="4050.00" id="D_1" nVehContrib="0" flow="0.00" occupancy="0.00" speed="-1.00" harmonicMeanSpeed="-1.00" length="-1.00" nVehEntered="0"/>
    <interval begin="4050.00" end="4080.00" id="D_1" nVehContrib="0" flow="0.00" occupancy="0.00" speed="-1.00" harmonicMeanSpeed="-1.00" length="-1.00" nVehEntered="0"/>
    <interval begin="4080.00" end="4110.00" id="D_1" nVehContrib="0" flow="0.00" occupancy="0.00" speed="-1.00" harmonicMeanSpeed="-1.00" length="-1.00" nVehEntered="0"/>
    <interval begin="4110.00" end="4140.00" id="D_1" nVehContrib="0" flow="0.00" occupancy="0.00" speed="-1.00" harmonicMeanSpeed="-1.00" length="-1.00" nVehEntered="0"/>
    <interval begin="4140.00" end="4170.00" id="D_1" nVehContrib="0" flow="0.00" occupancy="0.00" speed="-1.00" harmonicMeanSpeed="-1.00" length="-1.00" nVehEntered="0"/>
    <interval begin="4170.00" end="4200.00" id="D_1" nVehContrib="0" flow="0.00" occupancy="0.00" speed="-1.00" harmonicMeanSpeed="-1.00" length="-1.00" nVehEntered="0"/>
    <interval begin="4200.00" end="4230.00" id="D_1" nVehContrib="0" flow="0.00" occupancy="0.00" speed="-1.00" harmonicMeanSpeed="-1.00" length="-1.00" nVehEntered="0"/>
    <interval begin="4230.00" end="4260.00" id="D_1" nVehContrib="0" flow="0.00" occupancy="0.00" speed="-1.00" harmonicMeanSpeed="-1.00" length="-1.00" nVehEntered="0"/>
    <interval begin="4260.00" end="4290.00" id="D_1" nVehContrib="0" flow="0.00" occupancy="0.00" speed="-1.00" harmonicMeanSpeed="-1.00" length="-1.00" nVehEntered="0"/>
    <interval begin="4290.00" end="4320.00" id="D_1" nVehContrib="0" flow="0.00" occupancy="0.00" speed=